<?xml version="1.0"?>
<VTKFile type="UnstructuredGrid"  version="0.1"  >
<UnstructuredGrid>
<Piece  NumberOfPoints="4712" NumberOfCells="9042">
<Points>
<DataArray  type="Float64"  NumberOfComponents="3"  format="ascii">0 0 0  1 0 0  0 1 0  -1 0 0  0 -1 0  2 0 0  0 2 0  -2 0 0  0 -2 0  0.9987954561996324 0.0490676744401878 0  0.9951847266512656 0.09801714054207981 0  0.9891765099148661 0.146730474791861 0  0.9807852803073162 0.1950903224983218 0  0.9700312530421275 0.242980180511745 0  0.9569403355098371 0.2902846779875237 0  0.9415440648721034 0.336889854261176 0  0.9238795320944645 0.3826834333713878 0  0.9039892925984948 0.4275550945401925 0  0.881921263709607 0.4713967380210113 0  0.857728609225309 0.5141027454861695 0  0.8314696113671756 0.5555702344194819 0  0.8032075303797608 0.5956993059768037 0  0.7730104520585845 0.6343932857527598 0  0.7409511238779528 0.6715589564766437 0  0.7071067795113559 0.7071067828617392 0  0.6715589531680802 0.74095112687666 0  0.6343932825114998 0.7730104547186178 0  0.5956993029054487 0.8032075326576329 0  0.5555702315008548 0.8314696133173398 0  0.5141027427291525 0.8577286108778014 0  0.4713967354781603 0.8819212650687891 0  0.427555092162291 0.9039892937231585 0  0.3826834312022978 0.9238795329929309 0  0.3368898523180032 0.9415440655673817 0  0.2902846763468299 0.9569403360075361 0  0.2429801791809891 0.9700312533754644 0  0.1950903214102098 0.9807852805237551 0  0.1467304739781086 0.9891765100355748 0  0.09801714003107913 0.9951847267015947 0  0.04906767419738376 0.9987954562115605 0  -0.0490676744401878 0.9987954561996324 0  -0.09801714054207981 0.9951847266512656 0  -0.146730474791861 0.9891765099148661 0  -0.1950903224983218 0.9807852803073162 0  -0.242980180511745 0.9700312530421275 0  -0.2902846779875237 0.9569403355098371 0  -0.336889854261176 0.9415440648721034 0  -0.3826834333713878 0.9238795320944645 0  -0.4275550945401925 0.9039892925984948 0  -0.4713967380210113 0.881921263709607 0  -0.5141027454861695 0.857728609225309 0  -0.5555702344194819 0.8314696113671756 0  -0.5956993059768037 0.8032075303797608 0  -0.6343932857527598 0.7730104520585845 0  -0.6715589564766437 0.7409511238779528 0  -0.7071067828617392 0.7071067795113559 0  -0.74095112687666 0.6715589531680802 0  -0.7730104547186178 0.6343932825114998 0  -0.8032075326576329 0.5956993029054487 0  -0.8314696133173398 0.5555702315008548 0  -0.8577286108778014 0.5141027427291525 0  -0.8819212650687891 0.4713967354781603 0  -0.9039892937231585 0.427555092162291 0  -0.9238795329929309 0.3826834312022978 0  -0.9415440655673817 0.3368898523180032 0  -0.9569403360075361 0.2902846763468299 0  -0.9700312533754644 0.2429801791809891 0  -0.9807852805237551 0.1950903214102098 0  -0.9891765100355748 0.1467304739781086 0  -0.9951847267015947 0.09801714003107913 0  -0.9987954562115605 0.04906767419738376 0  -0.9987954561996324 -0.0490676744401878 0  -0.9951847266512656 -0.09801714054207981 0  -0.9891765099148661 -0.146730474791861 0  -0.9807852803073162 -0.1950903224983218 0  -0.9700312530421275 -0.242980180511745 0  -0.9569403355098371 -0.2902846779875237 0  -0.9415440648721034 -0.336889854261176 0  -0.9238795320944645 -0.3826834333713878 0  -0.9039892925984948 -0.4275550945401925 0  -0.881921263709607 -0.4713967380210113 0  -0.857728609225309 -0.5141027454861695 0  -0.8314696113671756 -0.5555702344194819 0  -0.8032075303797608 -0.5956993059768037 0  -0.7730104520585845 -0.6343932857527598 0  -0.7409511238779528 -0.6715589564766437 0  -0.7071067795113559 -0.7071067828617392 0  -0.6715589531680802 -0.74095112687666 0  -0.6343932825114998 -0.7730104547186178 0  -0.5956993029054487 -0.8032075326576329 0  -0.5555702315008548 -0.8314696133173398 0  -0.5141027427291525 -0.8577286108778014 0  -0.4713967354781603 -0.8819212650687891 0  -0.427555092162291 -0.9039892937231585 0  -0.3826834312022978 -0.9238795329929309 0  -0.3368898523180032 -0.9415440655673817 0  -0.2902846763468299 -0.9569403360075361 0  -0.2429801791809891 -0.9700312533754644 0  -0.1950903214102098 -0.9807852805237551 0  -0.1467304739781086 -0.9891765100355748 0  -0.09801714003107913 -0.9951847267015947 0  -0.04906767419738376 -0.9987954562115605 0  0.0490676744401878 -0.9987954561996324 0  0.09801714054207981 -0.9951847266512656 0  0.146730474791861 -0.9891765099148661 0  0.1950903224983218 -0.9807852803073162 0  0.242980180511745 -0.9700312530421275 0  0.2902846779875237 -0.9569403355098371 0  0.336889854261176 -0.9415440648721034 0  0.3826834333713878 -0.9238795320944645 0  0.4275550945401925 -0.9039892925984948 0  0.4713967380210113 -0.881921263709607 0  0.5141027454861695 -0.857728609225309 0  0.5555702344194819 -0.8314696113671756 0  0.5956993059768037 -0.8032075303797608 0  0.6343932857527598 -0.7730104520585845 0  0.6715589564766437 -0.7409511238779528 0  0.7071067828617392 -0.7071067795113559 0  0.74095112687666 -0.6715589531680802 0  0.7730104547186178 -0.6343932825114998 0  0.8032075326576329 -0.5956993029054487 0  0.8314696133173398 -0.5555702315008548 0  0.8577286108778014 -0.5141027427291525 0  0.8819212650687891 -0.4713967354781603 0  0.9039892937231585 -0.427555092162291 0  0.9238795329929309 -0.3826834312022978 0  0.9415440655673817 -0.3368898523180032 0  0.9569403360075361 -0.2902846763468299 0  0.9700312533754644 -0.2429801791809891 0  0.9807852805237551 -0.1950903214102098 0  0.9891765100355748 -0.1467304739781086 0  0.9951847267015947 -0.09801714003107913 0  0.9987954562115605 -0.04906767419738376 0  1.999378363998789 0.04986138359016533 0  1.99751384242655 0.09969177154770331 0  1.994407594337321 0.1494601875069776 0  1.990061550688102 0.1991356936183676 0  1.984478413131938 0.2486874098408355 0  1.977661652347888 0.2980845330315243 0  1.969615505879204 0.3472963561573991 0  1.96034497550086 0.3962922873694799 0  1.9498558241137 0.4450418690077176 0  1.938154572146446 0.493514796604749 0  1.925248493518986 0.5416809376403006 0  1.91114561111539 0.589510350303015 0  1.895854691782939 0.6369733021443025 0  1.879385240936723 0.6840402883962439 0  1.861747496548747 0.730682050617417 0  1.842952422882214 0.7768695945862328 0  1.823011703655989 0.8225742084051079 0  1.801937734727183 0.8677674804728912 0  1.779743616431239 0.9124213170308192 0  1.756443145433664 0.9565079596423117 0  1.732050806131022 1.000000002490439 0  1.706581761659981 1.042870409384367 0  1.680051844532268 1.085092530470892 0  1.652477546708337 1.126640118948725 0  1.623876009356308 1.167487347356292 0  1.594265012158365 1.207608823670848 0  1.563662962429 1.24697960686122 0  1.532088883563644 1.2855752225602 0  1.499562403123787 1.323371678379741 0  1.466103740621075 1.360345478816647 0  1.431733695282189 1.396473639491132 0  1.396473632877304 1.431733701733135 0  1.360345472266992 1.466103746698266 0  1.323371671934413 1.499562408811823 0  1.2855752161568 1.532088888936735 0  1.246979600529497 1.563662967478381 0  1.20760881756238 1.594265016785349 0  1.16748734141291 1.623876013629309 0  1.126640113124985 1.652477550678895 0  1.085092524808043 1.680051848189724 0  1.042870403857016 1.706581765037674 0  0.9999999972468488 1.73205080915841 0  0.9565079546222875 1.756443148167423 0  0.9124213120496788 1.779743618984921 0  0.8677674756873099 1.801937737031797 0  0.8225742037841095 1.823011705741063 0  0.7768695902081965 1.842952424727711 0  0.7306820465614282 1.861747498140605 0  0.6840402844868988 1.879385242359608 0  0.6369732985578394 1.895854692987927 0  0.589510347014376 1.9111456121298 0  0.5416809345644594 1.925248494384393 0  0.4935147938933465 1.938154572836854 0  0.4450418665294664 1.949855824679345 0  0.3962922852266104 1.96034497593405 0  0.3472963543910808 1.969615506190654 0  0.2980845314510096 1.977661652586112 0  0.2486874086219469 1.984478413284685 0  0.1991356926344872 1.990061550786554 0  0.1494601866893315 1.994407594398595 0  0.09969177105181694 1.997513842451299 0  0.04986138325658735 1.999378364007108 0  -0.04986138359016533 1.999378363998789 0  -0.09969177154770331 1.99751384242655 0  -0.1494601875069776 1.994407594337321 0  -0.1991356936183676 1.990061550688102 0  -0.2486874098408355 1.984478413131938 0  -0.2980845330315243 1.977661652347888 0  -0.3472963561573991 1.969615505879204 0  -0.3962922873694799 1.96034497550086 0  -0.4450418690077176 1.9498558241137 0  -0.493514796604749 1.938154572146446 0  -0.5416809376403006 1.925248493518986 0  -0.589510350303015 1.91114561111539 0  -0.6369733021443025 1.895854691782939 0  -0.6840402883962439 1.879385240936723 0  -0.730682050617417 1.861747496548747 0  -0.7768695945862328 1.842952422882214 0  -0.8225742084051079 1.823011703655989 0  -0.8677674804728912 1.801937734727183 0  -0.9124213170308192 1.779743616431239 0  -0.9565079596423117 1.756443145433664 0  -1.000000002490439 1.732050806131022 0  -1.042870409384367 1.706581761659981 0  -1.085092530470892 1.680051844532268 0  -1.126640118948725 1.652477546708337 0  -1.167487347356292 1.623876009356308 0  -1.207608823670848 1.594265012158365 0  -1.24697960686122 1.563662962429 0  -1.2855752225602 1.532088883563644 0  -1.323371678379741 1.499562403123787 0  -1.360345478816647 1.466103740621075 0  -1.396473639491132 1.431733695282189 0  -1.431733701733135 1.396473632877304 0  -1.466103746698266 1.360345472266992 0  -1.499562408811823 1.323371671934413 0  -1.532088888936735 1.2855752161568 0  -1.563662967478381 1.246979600529497 0  -1.594265016785349 1.20760881756238 0  -1.623876013629309 1.16748734141291 0  -1.652477550678895 1.126640113124985 0  -1.680051848189724 1.085092524808043 0  -1.706581765037674 1.042870403857016 0  -1.73205080915841 0.9999999972468488 0  -1.756443148167423 0.9565079546222875 0  -1.779743618984921 0.9124213120496788 0  -1.801937737031797 0.8677674756873099 0  -1.823011705741063 0.8225742037841095 0  -1.842952424727711 0.7768695902081965 0  -1.861747498140605 0.7306820465614282 0  -1.879385242359608 0.6840402844868988 0  -1.895854692987927 0.6369732985578394 0  -1.9111456121298 0.589510347014376 0  -1.925248494384393 0.54168093456445
[...]
<PointData  Scalars="f_48"> 
<DataArray  type="Float64"  Name="f_48"  format="ascii">0.0000000000000000e+00  1.0000000000000000e+00  1.0000000000000000e+00  1.0000000000000000e+00  1.0000000000000000e+00  9.9994149572641522e-01  9.9994147846989723e-01  9.9994148509485403e-01  9.9994149355914286e-01  1.0000000000000000e+00  1.0000000000000000e+00  1.0000000000000000e+00  1.0000000000000000e+00  1.0000000000000000e+00  1.0000000000000000e+00  1.0000000000000000e+00  1.0000000000000000e+00  1.0000000000000000e+00  1.0000000000000000e+00  1.0000000000000000e+00  1.0000000000000000e+00  1.0000000000000000e+00  1.0000000000000000e+00  1.0000000000000000e+00  1.0000000000000000e+00  1.0000000000000000e+00  1.0000000000000000e+00  1.0000000000000000e+00  1.0000000000000000e+00  1.0000000000000000e+00  1.0000000000000000e+00  1.0000000000000000e+00  1.0000000000000000e+00  1.0000000000000000e+00  1.0000000000000000e+00  1.0000000000000000e+00  1.0000000000000000e+00  1.0000000000000000e+00  1.0000000000000000e+00  1.0000000000000000e+00  1.0000000000000000e+00  1.0000000000000000e+00  1.0000000000000000e+00  1.0000000000000000e+00  1.0000000000000000e+00  1.0000000000000000e+00  1.0000000000000000e+00  1.0000000000000000e+00  1.0000000000000000e+00  1.0000000000000000e+00  1.0000000000000000e+00  1.0000000000000000e+00  1.0000000000000000e+00  1.0000000000000000e+00  1.0000000000000000e+00  1.0000000000000000e+00  1.0000000000000000e+00  1.0000000000000000e+00  1.0000000000000000e+00  1.0000000000000000e+00  1.0000000000000000e+00  1.0000000000000000e+00  1.0000000000000000e+00  1.0000000000000000e+00  1.0000000000000000e+00  1.0000000000000000e+00  1.0000000000000000e+00  1.0000000000000000e+00  1.0000000000000000e+00  1.0000000000000000e+00  1.0000000000000000e+00  1.0000000000000000e+00  1.0000000000000000e+00  1.0000000000000000e+00  1.0000000000000000e+00  1.0000000000000000e+00  1.0000000000000000e+00  1.0000000000000000e+00  1.0000000000000000e+00  1.0000000000000000e+00  1.0000000000000000e+00  1.0000000000000000e+00  1.0000000000000000e+00  1.0000000000000000e+00  1.0000000000000000e+00  1.0000000000000000e+00  1.0000000000000000e+00  1.0000000000000000e+00  1.0000000000000000e+00  1.0000000000000000e+00  1.0000000000000000e+00  1.0000000000000000e+00  1.0000000000000000e+00  1.0000000000000000e+00  1.0000000000000000e+00  1.0000000000000000e+00  1.0000000000000000e+00  1.0000000000000000e+00  1.0000000000000000e+00  1.0000000000000000e+00  1.0000000000000000e+00  1.0000000000000000e+00  1.0000000000000000e+00  1.0000000000000000e+00  1.0000000000000000e+00  1.0000000000000000e+00  1.0000000000000000e+00  1.0000000000000000e+00  1.0000000000000000e+00  1.0000000000000000e+00  1.0000000000000000e+00  1.0000000000000000e+00  1.0000000000000000e+00  1.0000000000000000e+00  1.0000000000000000e+00  1.0000000000000000e+00  1.0000000000000000e+00  1.0000000000000000e+00  1.0000000000000000e+00  1.0000000000000000e+00  1.0000000000000000e+00  1.0000000000000000e+00  1.0000000000000000e+00  1.0000000000000000e+00  1.0000000000000000e+00  1.0000000000000000e+00  1.0000000000000000e+00  1.0000000000000000e+00  1.0000000000000000e+00  1.0000000000000000e+00  1.0000000000000000e+00  1.0000000000000000e+00  1.0000000000000000e+00  9.9994149526220899e-01  9.9994149477467664e-01  9.9994149427151691e-01  9.9994149375140151e-01  9.9994149320979608e-01  9.9994149264396193e-01  9.9994149206401595e-01  9.9994149148756029e-01  9.9994149088381568e-01  9.9994149026383716e-01  9.9994148964806762e-01  9.9994148902158642e-01  9.9994148839226515e-01  9.9994148777024783e-01  9.9994148713328201e-01  9.9994148650536896e-01  9.9994148589119591e-01  9.9994148526393400e-01  9.9994148465455868e-01  9.9994148405431271e-01  9.9994148345927303e-01  9.9994148288226214e-01  9.9994148231628166e-01  9.9994148176188224e-01  9.9994148122939164e-01  9.9994148071667899e-01  9.9994148022627771e-01  9.9994147974837300e-01  9.9994147929146071e-01  9.9994147886762519e-01  9.9994147844588688e-01  9.9994147806633793e-01  9.9994147769981201e-01  9.9994147734998962e-01  9.9994147703213088e-01  9.9994147673873646e-01  9.9994147646867615e-01  9.9994147622013063e-01  9.9994147600387062e-01  9.9994147581857629e-01  9.9994147565873204e-01  9.9994147552334400e-01  9.9994147541860889e-01  9.9994147534300093e-01  9.9994147529759214e-01  9.9994147527995170e-01  9.9994147529127375e-01  9.9994147533082356e-01  9.9994147539736045e-01  9.9994147547996248e-01  9.9994147558751323e-01  9.9994147573015535e-01  9.9994147588620230e-01  9.9994147606544947e-01  9.9994147626729368e-01  9.9994147648455844e-01  9.9994147672441402e-01  9.9994147698185054e-01  9.9994147724996540e-01  9.9994147754540486e-01  9.9994147784761578e-01  9.9994147813969192e-01  9.9994147879098028e-01  9.9994147912250153e-01  9.9994147944115452e-01  9.9994147976996961e-01  9.9994148010249118e-01  9.9994148041806219e-01  9.9994148073580991e-01  9.9994148104565894e-01  9.9994148134349969e-01  9.9994148163389507e-01  9.9994148191732535e-01  9.9994148217194700e-01  9.9994148243072856e-01  9.9994148266698624e-01  9.9994148288774887e-01  9.9994148308973418e-01  9.9994148327940757e-01  9.9994148345610945e-01  9.9994148359425683e-01  9.9994148372849156e-01  9.9994148383960446e-01  9.9994148393212345e-01  9.9994148400713345e-01  9.9994148406975780e-01  9.9994148410369177e-01  9.9994148413710571e-01  9.9994148415605999e-01  9.9994148415483119e-01  9.9994148414988526e-01  9.9994148415240081e-01  9.9994148413115336e-01  9.9994148411273409e-01  9.9994148409726069e-01  9.9994148407945882e-01  9.9994148405399197e-01  9.9994148402676220e-01  9.9994148400308591e-01  9.9994148398272231e-01  9.9994148396220872e-01  9.9994148392761917e-01  9.9994148392493376e-01  9.9994148390157656e-01  9.9994148388486714e-01  9.9994148388960780e-01  9.9994148388084247e-01  9.9994148388785065e-01  9.9994148389921433e-01  9.9994148392322912e-01  9.9994148394363114e-01  9.9994148398173921e-01  9.9994148403615113e-01  9.9994148409256445e-01  9.9994148415532347e-01  9.9994148422584872e-01  9.9994148429468821e-01  9.9994148439660624e-01  9.9994148448693998e-01  9.9994148458292709e-01  9.9994148467625099e-01  9.9994148477838463e-01  9.9994148489049095e-01  9.9994148499379687e-01  9.9994148520704773e-01  9.9994148531042093e-01  9.9994148541934791e-01  9.9994148552053896e-01  9.9994148562282137e-01  9.9994148572287533e-01  9.9994148581995035e-01  9.9994148591191345e-01  9.9994148600439903e-01  9.9994148608585387e-01  9.9994148617329814e-01  9.9994148624989843e-01  9.9994148631861179e-01  9.9994148637552849e-01  9.9994148643364256e-01  9.9994148649507320e-01  9.9994148653090398e-01  9.9994148656855653e-01  9.9994148660013549e-01  9.9994148661741988e-01  9.9994148663117022e-01  9.9994148664281945e-01  9.9994148663105076e-01  9.9994148662233584e-01  9.9994148661149440e-01  9.9994148658096882e-01  9.9994148654874082e-01  9.9994148651137849e-01  9.9994148646370395e-01  9.9994148642413927e-01  9.9994148636300884e-01  9.9994148631692836e-01  9.9994148627309931e-01  9.9994148621714196e-01  9.9994148617399770e-01  9.9994148614197143e-01  9.9994148611478362e-01  9.9994148609403222e-01  9.9994148608973332e-01  9.9994148610672151e-01  9.9994148613313638e-01  9.9994148617956791e-01  9.9994148624669021e-01  9.9994148633898594e-01  9.9994148645790470e-01  9.9994148660503446e-01  9.9994148677959704e-01  9.9994148698707386e-01  9.9994148722203802e-01  9.9994148749084633e-01  9.9994148779174596e-01  9.9994148812537853e-01  9.9994148849092634e-01  9.9994148888836709e-01  9.9994148932023841e-01  9.9994148977797204e-01  9.9994149026710322e-01  9.9994149076767558e-01  9.9994149129768761e-01  9.9994149185461290e-01  9.9994149240376340e-01  9.9994149297505386e-01  9.9994149413683153e-01  9.9994149471916194e-01  9.9994149530227316e-01  9.9994149586497749e-01  9.9994149642374608e-01  9.9994149697538848e-01  9.9994149750501049e-01  9.9994149801411980e-01  9.9994149850412695e-01  9.9994149898257367e-01  9.9994149941800770e-01  9.9994149984454161e-01  9.9994150025001149e-01  9.9994150061990117e-01  9.9994150095347767e-01  9.9994150127857506e-01  9.9994150157396511e-01  9.9994150183828523e-01  9.9994150207845078e-01  9.9994150228443479e-01  9.9994150246369318e-01  9.9994150262589021e-01  9.9994150275122251e-01  9.9994150284412386e-01  9.9994150291335060e-01  9.9994150295526285e-01  9.9994150297486473e-01  9.9994150295923234e-01  9.9994150292257367e-01  9.9994150287149208e-01  9.9994150280439786e-01  9.9994150271161641e-01  9.9994150259549586e-01  9.9994150249553615e-01  9.9994150237100465e-01  9.9994150223629263e-01  9.9994150208309085e-01  9.9994150195134812e-01  9.9994150180452701e-01  9.9994150165352580e-01  9.9994150150560468e-01  9.9994150135249971e-01  9.9994150119236713e-01  9.9994150103439416e-01  9.9994150087517386e-01  9.9994150070047483e-01  9.9994150052007080e-01  9.9994150033853957e-01  9.9994150013965355e-01  9.9994149993764181e-01  9.9994149970603119e-01  9.9994149947143940e-01  9.9994149922649445e-01  9.9994149895756235e-01  9.9994149866727622e-01  9.9994149837056534e-01  9.9994149804391086e-01  9.9994149770505658e-01  9.9994149735438664e-01  9.9994149697178092e-01  9.9994149658586318e-01  9.9994149617170114e-01  9.9990027898755973e-01  9.9990053213317676e-01  9.9990031337114149e-01  9.9990020008603098e-01  9.9990048656446318e-01  9.9990045693950813e-01  9.9990105318219247e-01  9.9990030024882115e-01  9.9989997786784324e-01  9.9990040847129902e-01  9.9989982005661238e-01  9.9990028661877883e-01  9.9989957414058517e-01  9.9990020699100945e-01  9.9990029854908735e-01  9.9990154298970735e-01  9.9989984325650261e-01  9.9990014257696136e-01  9.9990019169041711e-01  9.9989961690633766e-01  9.9990053281129110e-01  9.9990029399624980e-01  9.9990022825771796e-01  9.9989988624975590e-01  9.9990031022314663e-01  9.9990022076447171e-01  9.9989981843326714e-01  9.9990057853477010e-01  9.9990035903154062e-01  9.9990078129017290e-01  9.9990048474305238e-01  9.9990035831456148e-01  9.9994142245163209e-01  9.9994142841799571e-01  9.9994143339236174e-01  9.9994144783787964e-01  9.9994142851269818e-01  9.9994143019875870e-01  9.9994144008195518e-01  9.9994143500324983e-01  9.9994143651442302e-01  9.9994143140985292e-01  9.9994143093198018e-01  9.9994144726171919e-01  9.9994142171863076e-01  9.9994143360826382e-01  9.9994143671358193e-01  9.9994144894506376e-01  9.9994143166064164e-01  9.9994142541621689e-01  9.9994143251068623e-01  9.9994145684705038e-01  9.9994142158319765e-01  9.9994143075480402e-01  9.9994143334407148e-01  9.9994144452126155e-01  9.9994143834123861e-01  9.9994143223754905e-01  9.9994143111860356e-01  9.9994143162749483e-01  9.9994142942124897e-01  9.9994143184607687e-01  9.9994143757583809e-01  9.9994143201566410e-01  9.9994142052925572e-01  9.9994142928230989e-01  9.9994143274132874e-01  9.9994144640648330e-01  9.9994144592762990e-01  9.9994143163448923e-01  9.9994143696900473e-01  9.9994144312694033e-01  9.9994142017674825e-01  9.9994143517855361e-01  9.9994143192480911e-01  9.9994144452360745e-01  9.9994142055622759e-01  9.9994142547197062e-01  9.9994143436943306e-01  9.9994145047716299e-01  9.9994142944297759e-01  9.9994142863723123e-01  9.9994143821904946e-01  9.9994145539579571e-01  9.9994143771626987e-01  9.9994142421953758e-01  9.9994143016509507e-01  9.9994145447635174e-01  9.9994144506244564e-01  9.9994142864938818e-01  9.9994144099736648e-01  9.9994144294803933e-01  9.9994143826657844e-01  9.9994142075434889e-01  9.9994143516993339e-01  9.9994144636745586e-01  9.9990023642609194e-01  9.9990038929840730e-01  9.9990015453241576e-01  9.9990027279518068e-01  9.9989997229374850e-01  9.9990030218060511e-01  9.9990012382280158e-01  9.9990133833748618e-01  9.9989974085405209e-01  9.9990024930814569e-01  9.9990072647453210e-01  9.9990094586122946e-01  9.9990041915663486e-01  9.9990014289526874e-01  9.9990020850500494e-01  9.9990047097561741e-01  9.9989870338213871e-01  9.9990051101595723e-01  9.9989985571791162e-01  9.9990107994848643e-01  9.9989983464075527e-01  9.9989862495989557e-01  9.9989932856563291e-01  9.9990036808596505e-01  9.9989937515552441e-01  9.9990148793581135e-01  9.9990042402356538e-01  9.9990046883520078e-01  9.9990023237373693e-01  9.9989981649632376e-01  9.9990050309497114e-01  9.9990035975458569e-01  9.9994143721251261e-01  9.9994142402264985e-01  9.9994143435279015e-01  9.9994144416066078e-01  9.9994144490249526e-01  9.9994143131185587e-01  9.9994143041823180e-01  9.9994144260320106e-01  9.9994144412374641e-01  9.9994142684654075e-01  9.9994141510182222e-01  9.9994145320885996e-01  9.9994142289497900e-01  9.9994142873342318e-01  9.9994143378154643e-01  9.9994144547709563e-01  9.9994142996438917e-01  9.9994142329364410e-01  9.9994143711987438e-01  9.9994144913296934e-01  9.9994142094841232e-01  9.9994142881771131e-01  9.9994143094718124e-01  9.9994145451273320e-01  9.9994142530690622e-01  9.9994143342606989e-01  9.9994142721139401e-01  9.9994145259754852e-01  9.9994142140789455e-01  9.9994142566089850e-01  9.9994141549997140e-01  9.9994145208859475e-01  9.9994143013027126e-01  9.9994142909986294e-01  9.9994144336798285e-01  9.9994145212119645e-01  9.9994144233955351e-01  9.9994142664279417e-01  9.9994141570379125e-01  9.9994145127968692e-01  9.9994141638997402e-01  9.9994142966404831e-01  9.9994141967043748e-01  9.9994144723873102e-01  9.9994142357251747e-01  9.9994142170256872e-01  9.9994143406222946e-01  9.9994144342683966e-01  9.9994143050961548e-01  9.9994142893534654e-01  9.9994143983777850e-01  9.9994144756420789e-01  9.9994142678600106e-01  9.9994144341024094e-01  9.9994143874150554e-01  9.9994144506732940e-01  9.9994141158107597e-01  9.9994143206022301e-01  9.9994143104878064e-01  9.9994145595379802e-01  9.9990026329890347e-01  9.9990919387537824e-01  9.9990927036308941e-01  9.9991257608759621e-01  9.9991275637362609e-01  9.9991592920388328e-01  9.9991615186855054e-01  9.9991897606258306e-01  9.9991926839019174e-01  9.9992182010847819e-01  9.9992162847759380e-01  9.9992214306394844e-01  9.9992420599150011e-01  9.9992408727853488e-01  9.9992642433255408e-01  9.9992635017088116e-01  9.9992847550015174e-01  9.9992844960680916e-01  9.9993032464122833e-01  9.9993037382145789e-01  9.9993035382698403e-01  9.9993204184783702e-01  9.9993214204265524e-01  9.9993046566826704e-01  9.9993222236703982e-01  9.9993061946381556e-01  9.9993241815034861e-01  9.9993085010353033e-01  9.9993261737121286e-01  9.9993113694086055e-01  9.9993289138067809e-01  9.9993148745498184e-01  9.9993326397625637e-01  9.9993190296404166e-01  9.9993361240284317e-01  9.9993235447721052e-01  9.9993406088429371e-01  9.9993285799923526e-01  9.9993452224256818e-01  9.9993339762820310e-01  9.9993500859541684e-01  9.9993397315985533e-01  9.9993221017869771e-01  9.9993287364502026e-01  9.9993456177788731e-01  9.9993355944616358e-01  9.9993371470505943e-01  9.9993173269087965e-01  9.9993251242647507e-01  9.9993425057749619e-01  9.9993330432267635e-01  9.9993143423871900e-01  9.9993232743940286e-01  9.9993409273089995e-01  9.9993321851136763e-01  9.9993133918218258e-01  9.9993233184933750e-01  9.9993409536577760e-01  9.9993330690963877e-01  9.9993144208466478e-01  9.9993251986161891e-01  9.9993425549830106e-01  9.9993356399559352e-01  9.9993174289779574e-01  9.9993288522291379e-01  9.9993098512526368e-01  9.9993222769206203e-01  9.9993397845427068e-01  9.9993341197236385e-01  9.9993159883565796e-01  9.9993287465192371e-01  9.9993100842974569e-01  9.9993237390598444e-01  9.9993046362989235e-01  9.9993191722401464e-01  9.9992997190319577e-01  9.9993151005079006e-01  9.9993327766491547e-01  9.9993294467993721e-01  9.9993115873685512e-01  9.9993266273515813e-01  9.9993086863260761e-01  9.9993243636634799e-01  9.9993064483636240e-01  9.9993226707943217e-01  9.9993048853043254e-01  9.9993216158770859e-01  9.9993040335321870e-01  9.9993211745760924e-01  9.9993039036250075e-01  9.9993213705639894e-01  9.9993044958126809e-01  9.9993222277000426e-01  9.9993058097865273e-01  9.9993236735474145e-01  9.9993078198790186e-01  9.9993257257637169e-01  9.9993104996506843e-01  9.9993283811537759e-01  9.9993138181725993e-01  9.9993315223494206e-01  9.9993176994814170e-01  9.9993352004837655e-01  9.9993221159899015e-01  9.9993392769085088e-01  9.9993269863161793e-01  9.9993437231148419e-01  9.9993322441470234e-01  9.9993484724804582e-01  9.9993378160688418e-01  9.9993368273087357e-01  9.9993387495324981e-01  9.9993200881157907e-01  9.9993265733436087e-01  9.9993436305731898e-01  9.9993332927857159e-01  9.9993495956562428e-01  9.9993401612422672e-01  9.9993225046198719e-01  9.9993303385146937e-01  9.9993470912176552e-01  9.9993382380911422e-01  9.9993202368687550e-01  9.9993291380942229e-01  9.9993460752708307e-01  9.9993379356128109e-01  9.9993198813614081e-01  9.9993297058387698e-01  9.9993465600715714e-01  9.9993392752633548e-01  9.9993214752438997e-01  9.9993320252058782e-01  9.9993133360201047e-01  9.9993248937234469e-01  9.9993421917746672e-01  9.9993359936419468e-01  9.9993179740486449e-01  9.9993300078190894e-01  9.9993113381939347e-01  9.9993243143878785e-01  9.9993050657831328e-01  9.9993189867121923e-01  9.9993365881403629e-01  9.9993321014599035e-01  9.9993141035499344e-01  9.9993280325759848e-01  9.9993097354638283e-01  9.9993243901721285e-01  9.9993059386921468e-01  9.9993213517384572e-01  9.9993027778345522e-01  9.9993188424005897e-01  9.9993002901114847e-01  9.9993169802429371e-01  9.9992985332445072e-01  9.9993157817621969e-01  9.9992975134841711e-01  9.9993151994817109e-01  9.9992972695025750e-01  9.9993153129897827e-01  9.9992977734206157e-01  9.9993160965962813e-01  9.9992990106753143e-01  9.9993175179942473e-01  9.9993009994884285e-01  9.9993195842151827e-01  9.9993036953662995e-01  9.9993222548473770e-01  9.9993068038000865e-01  9.9993254398456344e-01  9.9993106113893226e-01  9.9993291546474028e-01  9.9993154134714424e-01  9.9993333959898645e-01  9.9993205120747808e-01  9.9993380078066751e-01  9.9993259073092111e-01  9.9993429403586520e-01  9.9993317229942902e-01  9.9993314094999008e-01  9.9993342844651745e-01  9.9993337527272641e-01  9.9993481127548600e-01  9.9993378340948480e-01  9.9993199799464749e-01  9.9993270317001315e-01  9.9993440607783279e-01  9.9993342001171548e-01  9.9993398697018243e-01  9.9993157272244482e-01  9.9993239129620815e-01  9.9993414237333678e-01  9.9993321722162209e-01  9.9993133722772554e-01  9.9993227050713385e-01  9.9993403483835164e-01  9.9993318776890994e-01  9.9993130837369537e-01  9.9993233197783660e-01  9.9993409194806293e-01  9.9993333322269606e-01  9.9993147676555671e-01  9.9993257891993448e-01  9.9993430320939836e-01  9.9993364314871624e-01  9.9993183855861956e-01  9.9993299910756084e-01  9.9993112155929920e-01  9.9993237948783165e-01  9.9993043639945589e-01  9.9993179194255100e-01  9.9993357470873367e-01  9.9993307474546311e-01  9.9993124364729713e-01  9.9993261297179137e-01  9.9993074326951259e-01  9.9993219587786386e-01  9.9993029845402548e-01  9.9993183001965513e-01  9.9992991395767383e-01  9.9993152059837209e-01  9.9992959449429986e-01  9.9993127143856420e-01  9.9993300958396503e-01  9.9993281935043288e-01  9.9993108666658947e-01  9.9993268675626912e-01  9.9993096932429704e-01  9.9993261426764812e-01  9.9993092129871064e-01  9.9993259978148863e-01  9.9993094307654407e-01  9.9993265081617677e-01  9.9993103479644252e-01  9.9993275959576167e-01  9.9993119440008771e-01  9.9993292777389442e-01  9.9993141997689838e-01  9.9993315541999572e-01  9.9993170889717464e-01  9.9993343167753657e-01  9.9993205432485377e-01  9.9993376175178195e-01  9.9993245400049247e-01  9.9993413270677145e-01  9.9993290048090877e-01  9.9993454208488053e-01  9.9993338766460338e-01  9.9993498363071986e-01  9.9993390865668474e-01  9.9993216039442590e-01  9.9993277008430603e-01  9.9993445663262515e-01  9.9993340650149776e-01  9.9993502257702360e-01  9.9993406121413408e-01  9.9993230644197562e-01  9.9993305653433529e-01  9.9993472567492392e-01  9.9993381713948137e-01  9.9993201902269901e